% Model:              3d_pole_trap(optimized).mph
% Version:            COMSOL 6.3.0.420
% Date:               Nov 23 2025, 00:05
% Table:              Trap Metrics - Global Evaluation 1
% depth_eV               minU_eV                  maxU_eV                  trap_x                   trap_y                   trap_z                   offset_mm                P_est_mW (kg^2*m^4/(s^8*A^2))
11.567559521517467       72.8063171233249         84.37387664484237        -5.000000000000001E-6    -5.000000000000001E-6    0.01                     10.000002499999688       71.51356699645238
